# vtk DataFile Version 3.0
Triangulation generated with deal.II
ASCII
DATASET UNSTRUCTURED_GRID
POINTS 4665 double
0.0005 0.0005 0.0005
0.9995 0.0005 0.0005
0.0005 0.9995 0.0005
0.9995 0.9995 0.0005
0.0005 0.0005 0.9995
0.9995 0.0005 0.9995
0.0005 0.9995 0.9995
0.9995 0.9995 0.9995
0.5 0.0005 0.0005
0.0005 0.5 0.0005
0.0005 0.0005 0.5
0.9995 0.5 0.0005
0.9995 0.0005 0.5
0.5 0.9995 0.0005
0.0005 0.9995 0.5
0.9995 0.9995 0.5
0.5 0.0005 0.9995
0.0005 0.5 0.9995
0.9995 0.5 0.9995
0.5 0.9995 0.9995
0.5 0.0005 0.5
0.5 0.5 0.0005
0.0005 0.5 0.5
0.9995 0.5 0.5
0.5 0.9995 0.5
0.5 0.5 0.9995
0.5 0.5 0.5
0.25025 0.0005 0.0005
0.74975 0.0005 0.0005
0.0005 0.25025 0.0005
0.0005 0.74975 0.0005
0.0005 0.0005 0.25025
0.0005 0.0005 0.74975
0.9995 0.25025 0.0005
0.9995 0.74975 0.0005
0.9995 0.0005 0.25025
0.9995 0.0005 0.74975
0.25025 0.9995 0.0005
0.74975 0.9995 0.0005
0.0005 0.9995 0.25025
0.0005 0.9995 0.74975
0.9995 0.9995 0.25025
0.9995 0.9995 0.74975
0.25025 0.0005 0.9995
0.74975 0.0005 0.9995
0.0005 0.25025 0.9995
0.0005 0.74975 0.9995
0.9995 0.25025 0.9995
0.9995 0.74975 0.9995
0.25025 0.9995 0.9995
0.74975 0.9995 0.9995
0.25025 0.0005 0.5
0.74975 0.0005 0.5
0.5 0.0005 0.25025
0.5 0.0005 0.74975
0.5 0.25025 0.0005
0.5 0.74975 0.0005
0.25025 0.5 0.0005
0.74975 0.5 0.0005
0.0005 0.5 0.25025
0.0005 0.5 0.74975
0.0005 0.25025 0.5
0.0005 0.74975 0.5
0.9995 0.5 0.25025
0.9995 0.5 0.74975
0.9995 0.25025 0.5
0.9995 0.74975 0.5
0.25025 0.9995 0.5
0.74975 0.9995 0.5
0.5 0.9995 0.25025
0.5 0.9995 0.74975
0.5 0.25025 0.9995
0.5 0.74975 0.9995
0.25025 0.5 0.9995
0.74975 0.5 0.9995
0.5 0.5 0.74975
0.5 0.5 0.25025
0.74975 0.5 0.5
0.25025 0.5 0.5
0.5 0.74975 0.5
0.5 0.25025 0.5
0.25025 0.0005 0.25025
0.25025 0.0005 0.74975
0.74975 0.0005 0.25025
0.74975 0.0005 0.74975
0.25025 0.25025 0.0005
0.74975 0.25025 0.0005
0.25025 0.74975 0.0005
0.74975 0.74975 0.0005
0.0005 0.25025 0.25025
0.0005 0.74975 0.25025
0.0005 0.25025 0.74975
0.0005 0.74975 0.74975
0.9995 0.25025 0.25025
0.9995 0.74975 0.25025
0.9995 0.25025 0.74975
0.9995 0.74975 0.74975
0.25025 0.9995 0.25025
0.25025 0.9995 0.74975
0.74975 0.9995 0.25025
0.74975 0.9995 0.74975
0.25025 0.25025 0.9995
0.74975 0.25025 0.9995
0.25025 0.74975 0.9995
0.74975 0.74975 0.9995
0.74975 0.74975 0.5
0.25025 0.74975 0.5
0.74975 0.25025 0.5
0.25025 0.25025 0.5
0.74975 0.5 0.74975
0.74975 0.5 0.25025
0.25025 0.5 0.74975
0.25025 0.5 0.25025
0.5 0.74975 0.74975
0.5 0.25025 0.74975
0.5 0.74975 0.25025
0.5 0.25025 0.25025
0.25025 0.25025 0.25025
0.74975 0.25025 0.25025
0.25025 0.74975 0.25025
0.74975 0.74975 0.25025
0.25025 0.25025 0.74975
0.74975 0.25025 0.74975
0.25025 0.74975 0.74975
0.74975 0.74975 0.74975
0.125375 0.0005 0.0005
0.375125 0.0005 0.0005
0.624875 0.0005 0.0005
0.874625 0.0005 0.0005
0.0005 0.125375 0.0005
0.0005 0.375125 0.0005
0.0005 0.624875 0.0005
0.0005 0.874625 0.0005
0.0005 0.0005 0.125375
0.9995 0.125375 0.0005
0.9995 0.624875 0.0005
0.9995 0.874625 0.0005
0.9995 0.0005 0.125375
0.9995 0.0005 0.375125
0.125375 0.9995 0.0005
0.375125 0.9995 0.0005
0.624875 0.9995 0.0005
0.874625 0.9995 0.0005
0.0005 0.9995 0.125375
0.0005 0.9995 0.375125
0.0005 0.9995 0.624875
0.0005 0.9995 0.874625
0.9995 0.9995 0.125375
0.9995 0.9995 0.375125
0.9995 0.9995 0.624875
0.624875 0.0005 0.9995
0.0005 0.375125 0.9995
0.0005 0.624875 0.9995
0.0005 0.874625 0.9995
0.9995 0.375125 0.9995
0.9995 0.624875 0.9995
0.125375 0.9995 0.9995
0.375125 0.9995 0.9995
0.624875 0.9995 0.9995
0.375125 0.0005 0.5
0.624875 0.0005 0.5
0.874625 0.0005 0.5
0.5 0.0005 0.125375
0.5 0.0005 0.375125
0.5 0.0005 0.624875
0.5 0.0005 0.874625
0.5 0.125375 0.0005
0.5 0.375125 0.0005
0.5 0.624875 0.0005
0.5 0.874625 0.0005
0.125375 0.5 0.0005
0.375125 0.5 0.0005
0.624875 0.5 0.0005
0.874625 0.5 0.0005
0.0005 0.5 0.125375
0.0005 0.5 0.375125
0.0005 0.5 0.624875
0.0005 0.5 0.874625
0.0005 0.375125 0.5
0.0005 0.624875 0.5
0.0005 0.874625 0.5
0.9995 0.5 0.125375
0.9995 0.5 0.375125
0.9995 0.5 0.624875
0.9995 0.5 0.874625
0.9995 0.125375 0.5
0.9995 0.375125 0.5
0.9995 0.624875 0.5
0.9995 0.874625 0.5
0.125375 0.9995 0.5
0.375125 0.9995 0.5
0.624875 0.9995 0.5
0.874625 0.9995 0.5
0.5 0.9995 0.125375
0.5 0.9995 0.375125
0.5 0.9995 0.624875
0.5 0.9995 0.874625
0.5 0.125375 0.9995
0.5 0.375125 0.9995
0.5 0.624875 0.9995
0.5 0.874625 0.9995
0.125375 0.5 0.9995
0.375125 0.5 0.9995
0.624875 0.5 0.9995
0.874625 0.5 0.9995
0.5 0.5 0.624875
0.5 0.5 0.874625
0.5 0.5 0.125375
0.5 0.5 0.375125
0.624875 0.5 0.5
0.874625 0.5 0.5
0.125375 0.5 0.5
0.375125 0.5 0.5
0.5 0.624875 0.5
0.5 0.874625 0.5
0.5 0.125375 0.5
0.5 0.375125 0.5
0.125375 0.0005 0.25025
0.375125 0.0005 0.25025
0.25025 0.0005 0.125375
0.25025 0.0005 0.375125
0.624875 0.0005 0.25025
0.874625 0.0005 0.25025
0.74975 0.0005 0.125375
0.74975 0.0005 0.375125
0.624875 0.0005 0.74975
0.74975 0.0005 0.624875
0.74975 0.0005 0.874625
0.25025 0.125375 0.0005
0.25025 0.375125 0.0005
0.125375 0.25025 0.0005
0.375125 0.25025 0.0005
0.74975 0.125375 0.0005
0.624875 0.25025 0.0005
0.874625 0.25025 0.0005
0.25025 0.624875 0.0005
0.25025 0.874625 0.0005
0.125375 0.74975 0.0005
0.375125 0.74975 0.0005
0.74975 0.624875 0.0005
0.74975 0.874625 0.0005
0.624875 0.74975 0.0005
0.874625 0.74975 0.0005
0.0005 0.25025 0.125375
0.0005 0.25025 0.375125
0.0005 0.125375 0.25025
0.0005 0.375125 0.25025
0.0005 0.74975 0.125375
0.0005 0.74975 0.375125
0.0005 0.624875 0.25025
0.0005 0.874625 0.25025
0.0005 0.25025 0.624875
0.0005 0.25025 0.874625
0.0005 0.375125 0.74975
0.0005 0.74975 0.624875
0.0005 0.74975 0.874625
0.0005 0.624875 0.74975
0.0005 0.874625 0.74975
0.9995 0.25025 0.125375
0.9995 0.25025 0.375125
0.9995 0.125375 0.25025
0.9995 0.375125 0.25025
0.9995 0.74975 0.125375
0.9995 0.74975 0.375125
0.9995 0.624875 0.25025
0.9995 0.874625 0.25025
0.9995 0.25025 0.624875
0.9995 0.25025 0.874625
0.9995 0.375125 0.74975
0.9995 0.74975 0.624875
0.9995 0.74975 0.874625
0.9995 0.624875 0.74975
0.9995 0.874625 0.74975
0.125375 0.9995 0.25025
0.375125 0.9995 0.25025
0.25025 0.9995 0.125375
0.25025 0.9995 0.375125
0.125375 0.9995 0.74975
0.375125 0.9995 0.74975
0.25025 0.9995 0.624875
0.25025 0.9995 0.874625
0.624875 0.9995 0.25025
0.874625 0.9995 0.25025
0.74975 0.9995 0.125375
0.74975 0.9995 0.375125
0.624875 0.9995 0.74975
0.874625 0.9995 0.74975
0.74975 0.9995 0.624875
0.74975 0.9995 0.874625
0.25025 0.375125 0.9995
0.125375 0.25025 0.9995
0.375125 0.25025 0.9995
0.74975 0.125375 0.9995
0.74975 0.375125 0.9995
0.624875 0.25025 0.9995
0.874625 0.25025 0.9995
0.25025 0.624875 0.9995
0.25025 0.874625 0.9995
0.125375 0.74975 0.9995
0.375125 0.74975 0.9995
0.74975 0.624875 0.9995
0.74975 0.874625 0.9995
0.624875 0.74975 0.9995
0.874625 0.74975 0.9995
0.74975 0.624875 0.5
0.74975 0.874625 0.5
0.624875 0.74975 0.5
0.874625 0.74975 0.5
0.25025 0.624875 0.5
0.25025 0.874625 0.5
0.125375 0.74975 0.5
0.375125 0.74975 0.5
0.74975 0.125375 0.5
0.74975 0.375125 0.5
0.624875 0.25025 0.5
0.874625 0.25025 0.5
0.25025 0.125375 0.5
0.25025 0.375125 0.5
0.125375 0.25025 0.5
0.375125 0.25025 0.5
0.624875 0.5 0.74975
0.874625 0.5 0.74975
0.74975 0.5 0.624875
0.74975 0.5 0.874625
0.624875 0.5 0.25025
0.874625 0.5 0.25025
0.74975 0.5 0.125375
0.74975 0.5 0.375125
0.125375 0.5 0.74975
0.375125 0.5 0.74975
0.25025 0.5 0.624875
0.25025 0.5 0.874625
0.125375 0.5 0.25025
0.375125 0.5 0.25025
0.25025 0.5 0.125375
0.25025 0.5 0.375125
0.5 0.74975 0.624875
0.5 0.74975 0.874625
0.5 0.624875 0.74975
0.5 0.874625 0.74975
0.5 0.25025 0.624875
0.5 0.25025 0.874625
0.5 0.125375 0.74975
0.5 0.375125 0.74975
0.5 0.74975 0.125375
0.5 0.74975 0.375125
0.5 0.624875 0.25025
0.5 0.874625 0.25025
0.5 0.25025 0.125375
0.5 0.25025 0.375125
0.5 0.125375 0.25025
0.5 0.375125 0.25025
0.74975 0.74975 0.874625
0.74975 0.74975 0.624875
0.874625 0.74975 0.74975
0.624875 0.74975 0.74975
0.74975 0.874625 0.74975
0.74975 0.624875 0.74975
0.25025 0.74975 0.874625
0.25025 0.74975 0.624875
0.375125 0.74975 0.74975
0.125375 0.74975 0.74975
0.25025 0.874625 0.74975
0.25025 0.624875 0.74975
0.74975 0.25025 0.874625
0.74975 0.25025 0.624875
0.874625 0.25025 0.74975
0.624875 0.25025 0.74975
0.74975 0.375125 0.74975
0.74975 0.125375 0.74975
0.25025 0.25025 0.874625
0.25025 0.25025 0.624875
0.375125 0.25025 0.74975
0.125375 0.25025 0.74975
0.25025 0.375125 0.74975
0.74975 0.74975 0.375125
0.74975 0.74975 0.125375
0.874625 0.74975 0.25025
0.624875 0.74975 0.25025
0.74975 0.874625 0.25025
0.74975 0.624875 0.25025
0.25025 0.74975 0.375125
0.25025 0.74975 0.125375
0.375125 0.74975 0.25025
0.125375 0.74975 0.25025
0.25025 0.874625 0.25025
0.25025 0.624875 0.25025
0.74975 0.25025 0.375125
0.74975 0.25025 0.125375
0.874625 0.25025 0.25025
0.624875 0.25025 0.25025
0.74975 0.375125 0.25025
0.74975 0.125375 0.25025
0.25025 0.25025 0.375125
0.25025 0.25025 0.125375
0.375125 0.25025 0.25025
0.125375 0.25025 0.25025
0.25025 0.375125 0.25025
0.25025 0.125375 0.25025
0.125375 0.0005 0.125375
0.375125 0.0005 0.125375
0.375125 0.0005 0.375125
0.624875 0.0005 0.125375
0.624875 0.0005 0.375125
0.874625 0.0005 0.125375
0.874625 0.0005 0.375125
0.624875 0.0005 0.624875
0.624875 0.0005 0.874625
0.125375 0.125375 0.0005
0.375125 0.125375 0.0005
0.125375 0.375125 0.0005
0.375125 0.375125 0.0005
0.624875 0.125375 0.0005
0.874625 0.125375 0.0005
0.125375 0.624875 0.0005
0.375125 0.624875 0.0005
0.125375 0.874625 0.0005
0.375125 0.874625 0.0005
0.624875 0.624875 0.0005
0.874625 0.624875 0.0005
0.624875 0.874625 0.0005
0.874625 0.874625 0.0005
0.0005 0.125375 0.125375
0.0005 0.375125 0.125375
0.0005 0.375125 0.375125
0.0005 0.624875 0.125375
0.0005 0.874625 0.125375
0.0005 0.624875 0.375125
0.0005 0.874625 0.375125
0.0005 0.375125 0.624875
0.0005 0.375125 0.874625
0.0005 0.624875 0.624875
0.0005 0.874625 0.624875
0.0005 0.624875 0.874625
0.0005 0.874625 0.874625
0.9995 0.125375 0.125375
0.9995 0.125375 0.375125
0.9995 0.375125 0.375125
0.9995 0.624875 0.125375
0.9995 0.874625 0.125375
0.9995 0.624875 0.375125
0.9995 0.874625 0.375125
0.9995 0.375125 0.624875
0.9995 0.375125 0.874625
0.9995 0.624875 0.624875
[...]
CELL_DATA 7938
SCALARS MaterialID int 1
LOOKUP_TABLE default
6 6 6 6 8 2 2 6 8 8 8 8 8 8 8 8 8 8 8 6 6 6 6 8 6 6 6 6 6 6 6 2 2 2 2 2 2 2 2 2 2 8 8 8 8 8 8 8 8 8 8 8 8 8 5 5 5 5 5 5 5 6 6 6 6 6 6 6 6 6 6 6 6 6 6 6 6 6 2 2 2 5 6 6 6 6 6 6 6 6 6 6 6 6 6 6 6 6 6 6 6 6 6 6 6 6 6 6 6 6 6 6 6 6 6 6 6 6 6 6 6 6 6 6 6 6 6 6 6 6 6 6 6 6 6 6 6 6 6 6 6 6 6 6 6 6 7 7 7 7 7 7 7 7 6 6 7 8 6 8 7 8 7 8 7 8 7 8 7 8 7 6 7 7 6 6 7 7 6 6 8 8 6 6 6 8 7 8 7 8 7 8 7 8 6 6 8 6 8 6 8 6 8 6 8 6 8 8 8 8 6 6 6 6 6 6 6 6 6 8 8 8 6 6 8 8 6 6 6 6 8 6 8 6 8 8 8 8 8 8 8 8 6 6 8 6 8 6 8 6 6 6 6 6 6 6 6 6 6 6 7 7 6 6 7 6 6 6 6 8 6 6 6 6 7 7 7 7 7 7 7 7 8 8 7 8 8 8 8 8 6 6 6 6 6 6 6 6 6 6 6 6 6 6 6 6 7 7 7 7 7 7 7 7 6 8 8 8 6 8 8 8 6 6 8 8 6 6 8 8 6 6 8 8 6 6 8 8 8 8 8 8 8 8 8 8 8 8 8 8 8 8 8 8 6 6 6 8 6 6 6 6 6 6 8 8 6 6 8 8 8 8 8 8 8 1 1 8 6 6 6 6 2 2 6 6 6 6 6 6 2 6 6 6 2 2 2 2 2 2 2 2 2 2 2 6 2 2 2 2 6 6 6 6 2 2 6 6 6 6 6 6 2 6 6 6 6 6 6 6 6 6 6 6 6 6 6 6 6 6 6 6 2 2 6 6 2 2 2 2 2 2 6 6 2 2 2 2 6 6 6 6 6 6 6 6 6 6 6 6 6 6 6 6 2 2 2 2 2 2 2 2 2 2 2 2 2 2 2 2 2 2 2 6 2 2 2 2 2 2 2 2 2 2 2 2 2 2 2 2 2 2 2 2 2 2 6 6 2 2 2 2 2 2 6 6 2 2 2 2 6 6 6 6 2 2 6 6 6 6 6 6 6 6 6 6 6 6 6 6 8 6 8 6 6 6 6 6 6 6 6 6 2 2 8 2 2 2 8 2 2 2 6 6 2 2 2 2 8 6 8 8 8 8 8 8 6 6 6 6 6 6 6 6 6 6 6 6 6 6 6 6 6 6 6 6 6 6 6 6 2 2 6 6 2 2 2 2 2 2 6 6 2 2 2 2 6 6 6 6 6 6 6 6 6 6 6 6 6 6 6 6 7 8 7 8 7 8 7 8 7 7 7 7 7 8 7 7 7 8 7 8 7 8 7 8 7 8 7 8 7 8 7 8 8 8 8 8 8 8 8 8 6 6 5 6 6 6 8 6 8 8 8 8 8 8 8 8 5 5 5 5 8 5 8 5 8 6 8 6 8 8 8 8 8 8 8 8 8 8 8 8 7 7 7 7 7 7 7 7 7 7 7 7 7 8 7 7 7 7 7 7 7 7 7 7 7 5 7 5 8 8 8 8 5 5 5 5 5 5 5 5 7 5 7 5 8 8 8 8 5 5 5 5 5 5 5 5 8 8 8 8 8 8 8 8 8 5 8 5 8 8 8 8 8 8 8 8 8 8 8 8 8 5 8 5 8 8 8 8 7 8 7 8 7 8 7 8 7 8 7 8 7 8 7 8 8 8 7 8 8 8 8 8 7 8 7 8 7 8 7 8 8 8 8 8 8 8 8 8 8 8 8 8 8 1 8 8 8 8 8 8 8 8 8 8 7 8 7 8 7 8 7 8 7 7 7 7 7 8 7 7 7 8 7 8 7 8 7 8 7 8 7 7 7 8 7 8 8 8 8 8 8 8 8 8 8 8 8 8 8 8 8 8 6 6 6 6 6 6 6 6 5 5 5 5 5 6 5 5 6 6 5 5 6 6 5 5 6 6 6 6 6 6 6 6 6 6 6 6 6 6 6 6 6 6 5 5 6 6 8 6 6 6 5 6 6 6 6 6 6 6 5 5 6 6 6 6 6 6 6 6 6 6 6 6 6 6 6 6 6 6 6 6 5 5 5 5 8 5 5 5 5 5 5 5 5 5 5 5 5 5 5 5 5 5 5 5 5 5 5 5 5 5 5 5 5 5 5 5 5 6 5 5 5 5 5 5 5 5 5 5 5 3 5 3 5 3 3 3 5 5 5 5 5 6 5 5 6 6 5 3 6 6 6 3 5 5 5 5 5 5 5 3 3 3 3 3 3 3 3 3 8 6 8 6 8 1 8 1 1 6 1 6 1 6 6 6 8 6 8 6 8 1 8 8 6 6 6 6 1 6 6 6 8 8 8 1 8 8 8 8 1 6 1 6 8 6 8 6 8 8 8 8 8 8 8 8 8 6 8 6 8 6 8 8 6 6 6 6 6 6 6 6 6 6 6 6 6 6 6 6 8 8 8 5 8 8 8 8 6 6 5 5 8 6 8 5 8 5 8 5 8 8 8 8 5 5 5 5 5 5 5 5 8 6 8 5 8 5 8 5 8 8 8 8 8 8 8 8 8 5 8 5 5 5 5 5 6 6 5 5 6 6 5 6 6 6 6 3 6 6 3 3 5 3 5 3 5 3 3 3 3 3 3 3 3 3 3 3 6 6 5 6 5 5 5 5 6 6 3 3 6 6 5 5 5 3 5 3 5 5 5 5 3 3 3 3 5 3 5 3 7 7 7 7 6 6 7 7 6 8 8 8 6 6 8 8 6 6 7 7 6 6 7 7 6 6 6 8 6 6 6 8 6 6 6 6 6 6 6 6 6 6 6 8 6 6 6 6 8 1 1 8 8 8 8 8 8 8 8 8 8 8 8 8 6 8 8 8 6 6 8 8 8 8 8 8 8 8 8 8 6 6 7 6 6 6 6 6 6 6 6 8 6 6 6 6 6 6 6 6 6 6 6 6 6 6 6 6 6 6 6 6 6 6 8 8 6 6 8 8 6 6 8 8 6 6 8 8 6 6 6 8 6 6 6 6 6 6 8 6 6 6 6 6 2 2 2 2 2 2 2 2 2 2 2 2 2 2 2 2 2 2 2 2 2 2 2 2 2 2 2 2 2 2 2 2 2 2 8 2 2 2 2 2 8 8 8 8 8 2 8 8 2 2 8 6 2 2 8 2 2 2 2 2 2 2 2 2 8 2 8 8 8 2 8 8 2 2 2 2 2 2 2 2 2 2 6 6 2 2 2 2 2 2 6 6 2 2 2 2 2 2 2 2 2 2 2 2 2 2 2 2 2 2 2 2 2 2 2 2 2 2 2 2 2 2 2 2 2 2 2 2 2 2 2 2 2 2 2 2 2 2 8 2 2 2 8 2 2 2 5 2 2 2 5 5 2 2 2 2 2 2 2 2 2 2 5 5 2 2 5 5 2 2 5 5 2 2 5 5 2 2 2 2 2 2 2 2 2 2 2 2 2 2 2 2 8 8 8 8 8 8 8 8 7 8 7 8 8 8 7 8 8 8 8 8 8 8 8 8 8 8 8 8 8 8 8 8 8 1 8 8 8 8 8 8 8 8 8 8 8 8 8 8 7 8 7 8 7 8 7 8 7 8 7 8 7 8 7 8 7 8 7 8 8 8 7 8 7 8 7 8 7 8 7 8 8 8 8 8 8 8 8 8 8 8 8 8 8 8 8 5 7 7 7 7 7 7 7 7 8 8 8 8 8 8 8 8 8 8 8 8 8 8 8 8 7 6 7 7 7 6 7 8 8 8 8 8 8 8 8 8 7 7 7 7 7 7 7 7 8 8 8 8 8 8 8 8 8 8 8 8 8 8 8 8 8 8 8 8 8 8 8 8 8 8 8 8 8 8 8 8 8 8 8 8 8 5 8 5 8 8 8 8 8 8 8 8 8 5 8 5 8 5 5 5 8 8 8 8 8 8 8 8 7 8 7 8 7 8 7 8 8 8 8 8 8 8 8 8 8 8 7 8 8 8 8 8 8 8 8 5 8 5 8 5 8 8 8 8 8 8 8 8 8 5 8 5 5 5 5 5 8 8 8 8 8 8 8 5 5 5 5 5 5 5 5 5 8 8 8 5 8 5 8 5 5 5 5 5 5 5 5 5 8 6 8 8 8 5 8 5 8 8 8 8 8 8 8 8 8 5 8 5 8 5 5 5 8 8 8 8 8 8 8 8 8 5 5 5 5 5 5 5 8 8 8 8 8 5 8 5 5 5 5 5 5 5 5 5 6 6 6 6 5 6 5 5 6 6 6 6 6 6 5 5 5 5 5 5 5 5 5 5 6 6 5 5 5 5 5 5 5 5 5 5 5 5 5 5 5 5 5 5 5 5 5 5 8 8 8 8 8 8 8 5 5 5 5 5 5 5 5 5 8 8 8 5 8 5 8 5 5 5 5 5 5 5 5 5 8 5 8 5 5 5 5 5 5 5 5 5 5 5 5 5 5 5 5 5 5 5 5 5 5 5 5 5 5 5 5 5 8 5 8 5 8 5 5 5 5 5 5 5 5 5 5 5 8 5 5 5 5 5 5 5 5 5 5 5 5 5 5 5 5 5 5 5 5 5 5 5 5 5 5 5 5 5 5 5 5 5 5 5 5 5 5 5 5 5 5 5 5 5 5 5 5 5 5 5 5 5 5 5 6 6 6 6 6 6 6 6 6 6 6 6 6 6 6 6 6 6 6 6 6 6 6 6 6 6 6 6 6 6 6 6 6 6 6 6 6 6 6 6 6 6 6 6 6 6 6 6 6 6 6 6 6 6 6 6 7 7 7 7 7 7 7 7 7 7 7 7 7 7 7 7 6 6 6 6 6 6 6 6 6 6 6 6 6 6 6 6 6 6 6 6 6 6 6 6 6 6 6 6 6 6 6 6 6 6 6 6 6 6 6 6 6 6 6 6 6 6 6 6 6 6 6 6 6 6 6 6 6 6 6 6 6 6 6 6 6 6 6 6 6 6 6 6 2 2 2 2 2 2 2 2 2 2 2 2 2 2 2 2 2 2 2 2 2 2 2 2 2 2 2 2 2 2 2 2 2 2 2 2 2 2 2 2 2 2 2 2 2 2 2 2 2 2 2 2 2 2 2 2 6 6 6 6 6 6 6 6 7 7 7 7 7 7 7 7 7 7 7 7 7 7 7 7 7 7 7 7 7 7 7 7 7 7 7 7 7 7 7 7 7 7 7 7 7 7 7 7 7 7 7 7 7 7 7 7 7 7 7 7 7 7 7 7 7 7 7 7 7 7 7 7 7 7 7 7 7 7 7 7 7 7 7 7 7 7 7 7 7 7 7 7 7 7 7 7 7 7 7 7 7 7 7 7 7 7 7 7 7 7 7 7 7 7 7 7 7 7 7 7 7 7 7 7 7 7 7 7 7 7 7 7 7 7 7 7 7 7 7 7 7 7 7 7 8 8 8 8 8 8 8 8 8 8 8 8 8 8 8 8 6 6 6 6 6 6 6 6 6 6 6 6 6 6 6 6 6 6 6 6 6 6 6 6 6 6 6 6 6 6 6 6 6 6 6 6 6 6 6 6 5 5 5 5 5 5 5 5 5 5 5 5 5 5 5 5 5 5 5 5 5 5 5 5 5 5 5 5 5 5 5 5 5 5 5 5 5 5 5 5 6 6 6 6 6 6 6 6 6 6 6 6 6 6 6 6 6 6 6 6 6 6 6 6 6 6 6 6 6 6 6 6 6 6 6 6 6 6 6 6 6 6 6 6 6 6 6 6 6 6 6 6 6 6 6 6 6 6 6 6 6 6 6 6 6 6 6 6 6 6 6 6 6 6 6 6 6 6 6 6 2 2 2 2 2 2 2 2 2 2 2 2 2 2 2 2 2 2 2 2 2 2 2 2 2 2 2 2 2 2 2 2 2 2 2 2 2 2 2 2 2 2 2 2 2 2 2 2 2 2 2 2 2 2 2 2 2 2 2 2 2 2 2 2 2 2 2 2 2 2 2 2 2 2 2 2 2 2 2 2 2 2 2 2 2 2 2 2 2 2 2 2 2 2 2 2 7 7 7 7 7 7 7 7 7 7 7 7 7 7 7 7 7 7 7 7 7 7 7 7 7 7 7 7 7 7 7 7 7 7 7 7 7 7 7 7 7 7 7 7 7 7 7 7 7 7 7 7 7 7 7 7 7 7 7 7 7 7 7 7 8 8 8 8 8 8 8 8 8 8 8 8 8 8 8 8 8 8 8 8 8 8 8 8 7 7 7 7 7 7 7 7 7 7 7 7 7 7 7 7 7 7 7 7 7 7 7 7 7 7 7 7 7 7 7 7 7 7 7 7 7 7 7 7 5 5 5 5 5 5 5 5 5 5 5 5 5 5 5 5 5 5 5 5 5 5 5 5 5 5 5 5 5 5 5 5 5 5 5 5 5 5 5 5 5 5 5 5 5 5 5 5 5 5 5 5 5 5 5 5 5 5 5 5 5 5 5 5 5 5 5 5 5 5 5 5 5 5 5 5 5 5 5 5 5 5 5 5 5 5 5 5 5 5 5 5 5 5 5 5 5 5 5 5 5 5 5 5 5 5 5 5 5 5 5 5 5 5 5 5 5 5 5 5 5 5 5 5 5 5 5 5 5 5 5 5 5 5 5 5 5 5 5 5 5 5 5 5 6 6 6 6 6 6 6 6 6 6 6 6 6 6 6 6 6 6 6 6 6 6 6 6 6 6 6 6 6 6 6 6 6 6 6 6 6 6 6 6 6 6 6 6 6 6 6 6 6 6 6 6 6 6 6 6 6 6 6 6 6 6 6 6 6 6 6 6 6 6 6 6 6 6 6 6 6 6 6 6 6 6 6 6 6 6 6 6 6 6 6 6 6 6 6 6 6 6 6 6 6 6 6 6 6 6 6 6 6 6 6 6 6 6 6 6 6 6 6 6 6 6 6 6 6 6 6 6 6 6 6 6 6 6 6 6 6 6 6 6 6 6 6 6 6 6 6 6 6 6 6 6 6 6 6 6 6 6 6 6 6 6 6 6 6 6 6 6 6 6 6 6 6 6 6 6 6 6 6 6 6 6 6 6 6 6 6 6 6 6 6 6 6 6 6 6 6 6 6 6 6 6 6 6 6 6 6 6 6 6 6 6 6 6 6 6 6 6 6 6 6 6 6 6 6 6 6 6 6 6 6 6 6 6 6 6 6 6 6 6 6 6 6 6 6 6 6 6 6 6 6 6 6 6 6 6 6 6 6 6 6 6 6 6 6 6 6 6 6 6 6 6 6 6 6 6 6 6 6 6 6 6 6 6 6 6 6 6 6 6 6 6 6 6 6 6 6 6 6 6 6 6 6 6 2 2 2 2 2 2 2 2 2 2 2 2 2 2 2 2 2 2 2 2 2 2 2 2 2 2 2 2 2 2 2 2 2 2 2 2 2 2 2 2 2 2 2 2 2 2 2 2 2 2 2 2 2 2 2 2 2 2 2 2 2 2 2 2 2 2 2 2 2 2 2 2 2 2 2 2 2 2 2 2 2 2 2 2 2 2 2 2 2 2 2 2 2 2 2 2 2 2 2 2 2 2 2 2 5 5 5 5 5 5 5 5 5 5 5 5 5 5 5 5 5 5 5 5 5 5 5 5 5 5 5 5 5 5 5 5 5 5 5 5 5 5 5 5 5 5 5 5 5 5 5 5 5 5 5 5 5 5 5 5 2 2 2 2 2 2 2 2 2 2 2 2 2 2 2 2 6 6 6 6 6 6 6 6 
2 2 2 2 2 2 2 2 2 2 2 2 2 2 2 2 2 2 2 2 2 2 2 2 2 2 2 2 2 2 2 2 2 2 2 2 2 2 2 2 2 2 2 2 2 2 2 2 2 2 2 2 2 2 2 2 2 2 2 2 2 2 2 2 2 2 2 2 3 3 3 3 3 3 3 3 3 3 3 3 3 3 3 3 3 3 3 3 3 3 3 3 3 3 3 3 3 3 3 3 3 3 3 3 3 3 3 3 3 3 3 3 3 3 3 3 3 3 3 3 3 3 3 3 3 3 3 3 3 3 3 3 3 3 3 3 3 3 3 3 3 3 3 3 3 3 3 3 3 3 3 3 3 3 3 3 3 3 3 3 3 3 3 3 3 3 3 3 3 3 3 3 3 3 3 3 3 3 3 3 3 3 3 3 3 3 3 3 3 3 3 3 3 3 3 3 3 3 3 3 3 3 3 3 3 3 3 3 1 1 1 1 1 1 1 1 1 1 1 1 1 1 1 1 1 1 1 1 1 1 1 1 1 1 1 1 1 1 1 1 1 1 1 1 1 1 1 1 1 1 1 1 1 1 1 1 1 1 1 1 1 1 1 1 4 4 4 4 4 4 4 4 4 4 4 4 4 4 4 4 4 4 4 4 4 4 4 4 4 4 4 4 4 4 4 4 4 4 4 4 4 4 4 4 4 4 4 4 4 4 4 4 4 4 4 4 4 4 4 4 4 4 4 4 4 4 4 4 4 4 4 4 4 4 4 4 4 4 4 4 4 4 4 4 4 4 4 4 4 4 4 4 4 4 4 4 4 4 4 4 4 4 4 4 5 5 5 5 5 5 5 5 5 5 5 5 5 5 5 5 5 5 5 5 5 5 5 5 5 5 5 5 5 5 5 5 5 5 5 5 5 5 5 5 5 5 5 5 5 5 5 5 5 5 5 5 5 5 5 5 5 5 5 5 5 5 5 5 5 5 5 5 5 5 5 5 5 5 5 5 5 5 5 5 5 5 5 5 5 5 5 5 5 5 5 5 5 5 5 5 5 5 5 5 5 5 5 5 5 5 5 5 5 5 5 5 5 5 5 5 5 5 5 5 5 5 5 5 5 5 5 5 5 5 5 5 5 5 5 5 5 5 5 5 6 6 6 6 6 6 6 6 6 6 6 6 6 6 6 6 6 6 6 6 6 6 6 6 6 6 6 6 6 6 6 6 6 6 6 6 6 6 6 6 6 6 6 6 6 6 6 6 6 6 6 6 6 6 6 6 6 6 6 6 6 6 6 6 6 6 6 6 6 6 6 6 6 6 6 6 6 6 6 6 6 6 6 6 6 6 6 6 6 6 6 6 6 6 6 6 6 6 6 6 6 6 6 6 6 6 6 6 2 2 2 2 2 2 2 2 2 2 2 2 2 2 2 2 2 2 2 2 2 2 2 2 2 2 2 2 2 2 2 2 2 2 2 2 2 2 2 2 2 2 2 2 2 2 2 2 2 2 2 2 2 2 2 2 2 2 2 2 2 2 2 2 2 2 2 2 2 2 2 2 2 2 2 2 3 3 3 3 3 3 3 3 3 3 3 3 3 3 3 3 3 3 3 3 3 3 3 3 3 3 3 3 3 3 3 3 3 3 3 3 3 3 3 3 3 3 3 3 3 3 3 3 3 3 3 3 3 3 3 3 3 3 3 3 3 3 3 3 3 3 3 3 3 3 3 3 3 3 3 3 3 3 3 3 3 3 3 3 1 1 1 1 1 1 1 1 1 1 1 1 1 1 1 1 1 1 1 1 1 1 1 1 1 1 1 1 1 1 1 1 1 1 1 1 1 1 1 1 1 1 1 1 1 1 1 1 1 1 1 1 1 1 1 1 1 1 1 1 1 1 1 1 1 1 1 1 1 1 1 1 1 1 1 1 1 1 1 1 1 1 1 1 1 1 1 1 1 1 1 1 1 1 1 1 1 1 1 1 1 1 1 1 1 1 1 1 1 1 1 1 1 1 1 1 1 1 1 1 1 1 1 1 1 1 1 1 1 1 1 1 1 1 1 1 1 1 1 1 1 1 1 1 1 1 1 1 1 1 1 1 4 4 4 4 4 4 4 4 4 4 4 4 4 4 4 4 4 4 4 4 4 4 4 4 4 4 4 4 4 4 4 4 4 4 4 4 4 4 4 4 4 4 4 4 4 4 4 4 4 4 4 4 4 4 4 4 4 4 4 4 4 4 4 4 4 4 4 4 4 4 4 4 4 4 4 4 4 4 4 4 4 4 4 4 4 4 4 4 4 4 4 4 5 5 5 5 5 5 5 5 5 5 5 5 5 5 5 5 5 5 5 5 5 5 5 5 5 5 5 5 5 5 5 5 5 5 5 5 5 5 5 5 5 5 5 5 5 5 5 5 5 5 5 5 5 5 5 5 5 5 5 5 5 5 5 5 5 5 5 5 5 5 5 5 5 5 5 5 5 5 5 5 5 5 5 5 5 5 5 5 5 5 5 5 5 5 5 5 5 5 5 5 6 6 6 6 6 6 6 6 6 6 6 6 6 6 6 6 6 6 6 6 6 6 6 6 6 6 6 6 6 6 6 6 6 6 6 6 6 6 6 6 6 6 6 6 6 6 6 6 6 6 6 6 6 6 6 6 6 6 6 6 6 6 6 6 6 6 6 6 6 6 6 6 6 6 6 6 2 2 2 2 2 2 2 2 2 2 2 2 2 2 2 2 2 2 2 2 2 2 2 2 2 2 2 2 2 2 2 2 2 2 2 2 2 2 2 2 2 2 2 2 2 2 2 2 2 2 2 2 2 2 2 2 2 2 2 2 2 2 2 2 2 2 2 2 2 2 2 2 2 2 2 2 2 2 2 2 2 2 2 2 2 2 2 2 2 2 2 2 2 2 2 2 2 2 2 2 2 2 2 2 2 2 2 2 2 2 2 2 3 3 3 3 3 3 3 3 3 3 3 3 3 3 3 3 3 3 3 3 3 3 3 3 3 3 3 3 3 3 3 3 1 1 1 1 1 1 1 1 1 1 1 1 1 1 1 1 1 1 1 1 1 1 1 1 1 1 1 1 1 1 1 1 1 1 1 1 1 1 1 1 1 1 1 1 4 4 4 4 4 4 4 4 4 4 4 4 4 4 4 4 4 4 4 4 4 4 4 4 4 4 4 4 4 4 4 4 4 4 4 4 4 4 4 4 4 4 4 4 4 4 4 4 4 4 4 4 4 4 4 4 4 4 4 4 4 4 4 4 5 5 5 5 5 5 5 5 5 5 5 5 5 5 5 5 6 6 6 6 6 6 6 6 6 6 6 6 6 6 6 6 6 6 6 6 6 6 6 6 6 6 6 6 6 6 6 6 6 6 6 6 6 6 6 6 6 6 6 6 6 6 6 6 6 6 6 6 6 6 6 6 6 6 6 6 6 6 6 6 6 6 6 6 6 6 6 6 1 1 1 1 
2 2 2 2 2 2 2 2 2 2 2 2 2 2 2 2 2 2 2 2 2 2 2 2 2 2 2 2 2 2 2 2 2 2 2 2 2 2 2 2 2 2 2 2 2 2 2 2 2 2 2 2 2 2 2 2 2 2 2 2 2 2 2 2 2 2 2 2 2 2 2 2 2 2 2 2 2 2 2 2 2 2 2 2 2 2 2 2 2 2 2 2 2 2 2 2 2 2 2 2 2 2 2 2 2 2 2 2 2 2 2 2 2 2 2 2 2 2 2 2 2 2 2 2 2 2 2 2 2 2 2 2 2 2 2 2 2 2 2 2 2 2 2 2 2 2 3 3 3 3 3 3 3 3 3 3 3 3 3 3 3 3 3 3 3 3 3 3 3 3 3 3 3 3 3 3 3 3 3 3 3 3 3 3 3 3 3 3 3 3 3 3 3 3 3 3 3 3 3 3 3 3 3 3 3 3 3 3 3 3 3 3 3 3 3 3 3 3 3 3 3 3 3 3 3 3 3 3 3 3 3 3 3 3 3 3 3 3 3 3 3 3 3 3 3 3 3 3 3 3 3 3 3 3 3 3 3 3 3 3 3 3 3 3 3 3 3 3 3 3 3 3 3 3 3 3 3 3 3 3 3 3 3 3 3 3 3 3 3 3 3 3 3 3 3 3 3 3 3 3 3 3 3 3 3 3 3 3 3 3 3 3 3 3 3 3 3 3 3 3 3 3 3 3 3 3 3 3 3 3 3 3 3 3 3 3 3 3 3 3 3 3 3 3 3 3 3 3 3 3 3 3 3 3 3 3 3 3 3 3 3 3 3 3 3 3 3 3 3 3 3 3 3 3 3 3 3 3 3 3 3 3 3 3 3 3 3 3 3 3 3 3 3 3 3 3 3 3 3 3 3 3 3 3 3 3 3 3 3 3 3 3 3 3 3 3 3 3 3 3 3 3 3 3 3 3 3 3 3 3 3 3 3 3 3 3 3 3 3 3 3 3 1 1 1 1 1 1 1 1 1 1 1 1 1 1 1 1 1 1 1 1 1 1 1 1 1 1 1 1 1 1 1 1 1 1 1 1 1 1 1 1 1 1 1 1 1 1 1 1 1 1 1 1 1 1 1 1 1 1 1 1 1 1 1 1 1 1 1 1 1 1 1 1 1 1 1 1 1 1 1 1 1 1 1 1 1 1 1 1 1 1 1 1 1 1 1 1 1 1 1 1 1 1 1 1 1 1 1 1 1 1 1 1 1 1 1 1 1 1 1 1 1 1 1 1 1 1 1 1 4 4 4 4 4 4 4 4 4 4 4 4 4 4 4 4 4 4 4 4 4 4 4 4 4 4 4 4 4 4 4 4 4 4 4 4 4 4 4 4 4 4 4 4 4 4 4 4 4 4 4 4 4 4 4 4 4 4 4 4 4 4 4 4 4 4 4 4 4 4 4 4 4 4 4 4 4 4 4 4 4 4 4 4 4 4 4 4 4 4 4 4 4 4 4 4 4 4 4 4 4 4 4 4 4 4 4 4 4 4 4 4 4 4 4 4 4 4 4 4 4 4 4 4 4 4 4 4 4 4 4 4 4 4 4 4 4 4 4 4 4 4 4 4 4 4 4 4 4 4 4 4 4 4 4 4 4 4 4 4 4 4 4 4 4 4 4 4 4 4 4 4 4 4 4 4 4 4 4 4 4 4 4 4 4 4 4 4 4 4 4 4 4 4 4 4 4 4 4 4 4 4 4 4 4 4 4 4 4 4 4 4 4 4 4 4 4 4 5 5 5 5 5 5 5 5 5 5 5 5 5 5 5 5 5 5 5 5 5 5 5 5 5 5 5 5 5 5 5 5 5 5 5 5 5 5 5 5 5 5 5 5 5 5 5 5 5 5 5 5 5 5 5 5 5 5 5 5 5 5 5 5 5 5 5 5 5 5 5 5 5 5 5 5 5 5 5 5 5 5 5 5 5 5 5 5 5 5 5 5 5 5 5 5 5 5 5 5 5 5 5 5 5 5 5 5 5 5 5 5 5 5 5 5 5 5 5 5 5 5 5 5 5 5 5 5 5 5 5 5 5 5 5 5 5 5 5 5 5 5 5 5 5 5 5 5 5 5 5 5 5 5 5 5 5 5 5 5 5 5 5 5 5 5 5 5 5 5 5 5 5 5 5 5 5 5 5 5 5 5 5 5 5 5 5 5 5 5 5 5 5 5 5 5 5 5 5 5 5 5 5 5 5 5 5 5 5 5 5 5 5 5 5 5 5 5 5 5 5 5 5 5 5 5 5 5 5 5 5 5 5 5 5 5 5 5 5 5 5 5 5 5 5 5 5 5 5 5 5 5 5 5 5 5 5 5 5 5 5 5 5 5 5 5 5 5 5 5 5 5 5 5 5 5 5 5 5 5 5 5 5 5 5 5 5 5 5 5 5 5 5 5 5 5 5 5 5 5 5 5 5 5 6 6 6 6 6 6 6 6 6 6 6 6 6 6 6 6 6 6 6 6 6 6 6 6 6 6 6 6 6 6 6 6 6 6 6 6 6 6 6 6 6 6 6 6 6 6 6 6 6 6 6 6 6 6 6 6 6 6 6 6 6 6 6 6 6 6 6 6 6 6 6 6 6 6 6 6 6 6 6 6 6 6 6 6 6 6 6 6 6 6 6 6 6 6 6 6 6 6 6 6 6 6 6 6 6 6 6 6 6 6 6 6 6 6 6 6 6 6 6 6 6 6 6 6 6 6 6 6 6 6 6 6 6 6 6 6 6 6 6 6 6 6 6 6 6 6 6 6 6 6 6 6 6 6 6 6 6 6 6 6 6 6 6 6 6 6 6 6 6 6 6 6 6 6 6 6 6 6 6 6 6 6 6 6 6 6 6 6 6 6 6 6 6 6 6 6 6 6 6 6 6 6 6 6 6 6 6 6 6 6 6 6 6 6 6 6 6 6 6 6 6 6 6 6 6 6 6 6 6 6 6 6 6 6 2 2 2 2 2 2 2 2 2 2 2 2 2 2 2 2 2 2 2 2 2 2 2 2 2 2 2 2 2 2 2 2 2 2 2 2 2 2 2 2 2 2 2 2 2 2 2 2 2 2 2 2 2 2 2 2 2 2 2 2 2 2 2 2 2 2 2 2 2 2 2 2 2 2 2 2 2 2 2 2 2 2 2 2 2 2 2 2 2 2 2 2 2 2 2 2 2 2 2 2 2 2 2 2 2 2 2 2 2 2 2 2 2 2 2 2 2 2 2 2 2 2 2 2 2 2 2 2 2 2 2 2 2 2 2 2 2 2 2 2 2 2 3 3 3 3 3 3 3 3 3 3 3 3 3 3 3 3 3 3 3 3 3 3 3 3 3 3 3 3 3 3 3 3 3 3 3 3 3 3 3 3 3 3 3 3 3 3 3 3 3 3 3 3 3 3 3 3 3 3 3 3 3 3 3 3 3 3 3 3 3 3 3 3 3 3 3 3 3 3 3 3 3 3 3 3 3 3 3 3 3 3 3 3 3 3 3 3 3 3 3 3 3 3 3 3 3 3 3 3 3 3 3 3 3 3 3 3 3 3 3 3 3 3 3 3 3 3 3 3 3 3 3 3 1 1 1 1 1 1 1 1 1 1 1 1 1 1 1 1 1 1 1 1 1 1 1 1 1 1 1 1 1 1 1 1 1 1 1 1 1 1 1 1 1 1 1 1 1 1 1 1 1 1 1 1 1 1 1 1 1 1 1 1 1 1 1 1 1 1 1 1 1 1 1 1 1 1 1 1 1 1 1 1 1 1 1 1 1 1 1 1 1 1 1 1 1 1 1 1 1 1 1 1 1 1 1 1 1 1 1 1 1 1 1 1 1 1 1 1 1 1 1 1 1 1 1 1 1 1 1 1 1 1 1 1 1 1 1 1 1 1 1 1 1 1 1 1 1 1 1 1 1 1 1 1 1 1 1 1 1 1 1 1 1 1 1 1 1 1 1 1 1 1 1 1 1 1 1 1 1 1 1 1 1 1 1 1 1 1 1 1 1 1 1 1 1 1 1 1 1 1 1 1 1 1 1 1 1 1 1 1 1 1 1 1 1 1 1 1 1 1 1 1 1 1 1 1 1 1 1 1 1 1 1 1 1 1 1 1 1 1 1 1 1 1 1 1 1 1 1 1 1 1 1 1 1 1 1 1 1 1 1 1 1 1 1 1 1 1 1 1 1 1 1 1 4 4 4 4 4 4 4 4 4 4 4 4 4 4 4 4 4 4 4 4 4 4 4 4 4 4 4 4 4 4 4 4 4 4 4 4 4 4 4 4 4 4 4 4 4 4 4 4 4 4 4 4 4 4 4 4 4 4 4 4 4 4 4 4 4 4 4 4 4 4 4 4 4 4 4 4 4 4 4 4 4 4 4 4 4 4 4 4 4 4 4 4 4 4 4 4 4 4 4 4 4 4 4 4 4 4 4 4 4 4 4 4 4 4 4 4 4 4 4 4 4 4 4 4 4 4 4 4 4 4 4 4 4 4 4 4 4 4 4 4 4 4 4 4 4 4 4 4 4 4 4 4 4 4 4 4 4 4 4 4 4 4 5 5 5 5 5 5 5 5 5 5 5 5 5 5 5 5 5 5 5 5 5 5 5 5 5 5 5 5 5 5 5 5 5 5 5 5 5 5 5 5 5 5 5 5 5 5 5 5 5 5 5 5 5 5 5 5 5 5 5 5 5 5 5 5 5 5 5 5 5 5 5 5 5 5 5 5 5 5 5 5 5 5 5 5 5 5 5 5 5 5 5 5 5 5 5 5 5 5 5 5 5 5 5 5 5 5 5 5 5 5 5 5 5 5 5 5 5 5 5 5 5 5 5 5 5 5 5 5 5 5 5 5 5 5 5 5 5 5 5 5 5 5 5 5 5 5 5 5 5 5 5 5 6 6 6 6 6 6 6 6 6 6 6 6 6 6 6 6 6 6 6 6 6 6 6 6 6 6 6 6 6 6 6 6 6 6 6 6 6 6 6 6 6 6 6 6 6 6 6 6 6 6 6 6 6 6 6 6 6 6 6 6 6 6 6 6 6 6 6 6 6 6 6 6 6 6 6 6 6 6 6 6 6 6 6 6 6 6 6 6 6 6 6 6 6 6 6 6 6 6 6 6 6 6 6 6 6 6 6 6 6 6 6 6 6 6 6 6 6 6 6 6 6 6 6 6 6 6 6 6 6 6 6 6 6 6 6 6 2 2 2 2 2 2 2 2 2 2 2 2 2 2 2 2 2 2 2 2 2 2 2 2 2 2 2 2 2 2 2 2 2 2 2 2 2 2 2 2 2 2 2 2 2 2 2 2 2 2 2 2 2 2 2 2 2 2 2 2 2 2 2 2 2 2 2 2 2 2 2 2 2 2 2 2 2 2 2 2 2 2 2 2 2 2 2 2 2 2 2 2 2 2 2 2 2 2 2 2 2 2 2 2 2 2 2 2 2 2 2 2 2 2 2 2 2 2 2 2 2 2 2 2 2 2 2 2 2 2 2 2 2 2 2 2 2 2 2 2 2 2 2 2 2 2 2 2 2 2 2 2 2 2 2 2 2 2 2 2 2 2 2 2 2 2 2 2 2 2 2 2 2 2 2 2 2 2 2 2 2 2 2 2 2 2 2 2 2 2 2 2 3 3 3 3 3 3 3 3 3 3 3 3 3 3 3 3 3 3 3 3 3 3 3 3 3 3 3 3 3 3 3 3 3 3 3 3 3 3 3 3 3 3 3 3 3 3 3 3 3 3 3 3 1 1 1 1 1 1 1 1 1 1 1 1 1 1 1 1 1 1 1 1 1 1 1 1 1 1 1 1 1 1 1 1 1 1 1 1 1 1 1 1 1 1 1 1 1 1 1 1 1 1 1 1 1 1 1 1 1 1 1 1 1 1 1 1 1 1 1 1 1 1 1 1 1 1 1 1 4 4 4 4 4 4 4 4 4 4 4 4 4 4 4 4 4 4 4 4 4 4 4 4 4 4 4 4 4 4 4 4 4 4 4 4 4 4 4 4 4 4 4 4 4 4 4 4 4 4 4 4 4 4 4 4 4 4 4 4 4 4 4 4 4 4 4 4 4 4 4 4 4 4 4 4 4 4 4 4 4 4 4 4 4 4 4 4 4 4 4 4 4 4 4 4 4 4 4 4 5 5 5 5 5 5 5 5 5 5 5 5 5 5 5 5 5 5 5 5 5 5 5 5 6 6 6 6 6 6 6 6 6 6 6 6 6 6 6 6 6 6 6 6 6 6 6 6 6 6 6 6 6 6 6 6 6 6 6 6 6 6 6 6 6 6 6 6 6 6 6 6 6 6 6 6 6 6 6 6 6 6 6 6 6 6 6 6 6 6 6 6 6 6 6 6 6 6 6 6 6 6 6 6 6 6 6 6 6 6 6 6 6 6 6 6 6 6 6 6 6 6 6 6 6 6 6 6 6 6 6 6 6 6 1 1 1 1 

SCALARS ManifoldID int 1
LOOKUP_TABLE default